LAMMPS data file via write_data, version 27 Jun 2024, timestep = 2000000, units = real

18648 atoms
5 atom types
12600 bonds
3 bond types
20160 angles
4 angle types
30240 dihedrals
6 dihedral types
6552 impropers
3 improper types

0.011373353662840566 43.240226646347224 xlo xhi
0.08641951735662105 47.06908048263107 ylo yhi
-1.3409146989821494 59.964914698971256 zlo zhi
-0.17353805676247513 -0.9446307221153567 0.07413386350195274 xy xz yz

Masses

1 14.01
2 12.01
3 1.008
4 0.001
5 0.001

Atoms # full

11600 0 4 0 4.80070161819458 2.133012533187866 0.22542013227939606 0 0 0
12141 0 5 0 0.09238543361425398 4.12015724182128 5.586367607116699 0 0 0
12142 0 5 0 1.0616598129272459 3.2277538776397705 5.172358989715576 0 0 0
12143 0 5 0 2.2586386203765865 3.1449830532073975 5.846898078918457 0 0 0
12188 0 5 0 4.421104431152343 1.464234471321106 -0.8576740026473999 0 0 0
12190 0 5 0 2.3126828654946556 2.5605669021606445 -0.8332623839378357 0 0 0
12191 0 5 0 2.722058533033492 3.245771169662475 0.29228019714355535 0 0 0
12192 0 5 0 3.984541892758582 3.0112335672765895 0.7961709499359129 0 0 0
12197 0 5 0 1.8758432865142822 4.149680137634277 0.9054090976715086 0 0 0
12198 0 5 0 2.2860457897186266 4.850862026214598 2.020632266998291 0 0 0
12199 0 5 0 3.5460512619050357 4.6269402503967285 2.5282955169677734 0 0 0
12200 0 5 0 4.383062839508056 3.7086315155029297 1.9262754917144773 0 0 0
12207 0 5 0 2.9491729736328094 7.728407859802244 4.873813629150391 0 0 0
12319 0 5 0 6.16569624335559 6.199684152550294 -1.3172353427776178 0 0 0
12325 0 5 0 6.56068954819657 7.762133128287726 0.45604575463448627 0 0 0
12326 0 5 0 5.7341333424111705 6.860689170005254 -0.18199288061941488 0 0 0
13077 0 5 0 6.271549224853509 4.119221210479736 5.580981254577643 0 0 0
17935 0 5 0 -0.007920232915399835 6.202217588371825 -1.3137983005412972 0 0 0
17939 0 5 0 2.0576811159544057 7.36443234438379 -1.1948293369182525 0 0 0
17941 0 5 0 0.3842916811399525 7.762932310051507 0.46053946801339585 0 0 0
18347 0 5 0 1.0011346537573367 0.3440983731044578 2.2631425857543945 0 0 0
18348 0 5 0 2.1720445358066107 0.41207627837788974 2.985186576843266 0 0 0
10681 465 2 -0.140261 5.6647484745382535 5.599515322524778 3.534113510037879 1 1 0
10675 465 2 -0.002672 5.444644723781878 3.4442336097327892 2.693799701080552 1 1 0
10682 465 2 -0.187088 4.978748234983588 4.463310765779308 3.4586197167893005 1 1 0
10691 465 3 0.133735 4.1184867151160525 4.447004803273199 4.131767386366596 1 1 0
10676 465 2 -0.20686 4.785449637060721 2.22840540479046 2.741296591817041 1 1 0
10677 465 2 -0.002672 5.475266682233238 1.2464681046644701 2.0974409841572133 1 1 0
10687 465 3 0.151995 3.9458551922885614 2.021813549447289 3.3810319105818074 1 1 0
10690 465 3 0.130168 5.324471132743727 6.271042498758079 4.298245614842949 1 1 0
10674 465 2 0.534823 6.661283139929518 3.608748362809758 1.914982909772889 1 1 0
9563 416 3 0.130168 3.4908563184428876 3.9997375949405596 1.1998317922909891 1 1 0
9554 416 2 -0.140261 3.1741086099876052 4.424956718482645 0.2562621725518601 1 1 0
9553 416 2 -0.100851 1.9361987914766259 5.147346627761823 0.17515718908163636 1 1 0
10680 465 2 -0.100851 6.720861133340051 5.935738262807838 2.627791675974536 1 1 0
9694 422 2 -0.187088 5.440662988672107 2.1858486384992304 6.039225940309035 1 1 1
9774 425 3 0.128637 2.385808292628845 2.122468844132144 0.9571574158104432 1 1 1
9764 425 2 -0.140261 1.3588830615577452 1.6988416752372533 -0.8940559171464465 1 1 1
1633 71 3 0.152509 5.422450071304585 7.243731097541557 -0.818686251702814 0 1 1
9562 416 3 0.128637 1.341392045943929 5.187695324683625 1.030926390593647 1 1 0
9703 422 3 0.133735 4.720838554446779 2.7306548639060964 5.37542592909145 1 1 1
1501 66 2 0.534823 0.563723882471827 6.173950976983295 3.4130315944996106 0 1 1
1497 66 2 0.534823 2.414127204964683 7.410257567348553 3.702699577654055 0 1 1
1496 66 1 -0.693636 1.5191713895292516 6.859390206313363 2.8488921681770876 0 1 1
1498 66 2 -0.002672 2.277830628346918 7.181492786564825 5.106521124592166 0 1 1
1500 66 2 -0.002672 0.5207719589778415 5.804267580518519 4.7640201991441025 0 1 1
1499 66 2 -0.20686 1.4159625148394992 6.279335195171553 5.670288304050222 0 1 1
10678 465 2 0.534823 6.653175268195924 1.4116208743495593 1.4768659003714475 1 1 0
9552 416 2 -0.274751 1.4519482129402768 5.48934855818735 -1.1407286669362062 1 1 0
9564 416 3 0.133735 5.139849931408951 4.09927790800757 -0.7315270060424176 1 1 0
1505 66 2 -0.187088 3.2588915921251482 7.7593417127246616 5.948751170931873 0 1 1
9766 425 2 -0.274751 0.2968179861706983 2.4802133456479694 1.1769656125736792 1 1 1
9765 425 2 -0.100851 1.4461781284240813 2.1173910237865248 0.46095792276985903 1 1 1
9555 416 2 -0.187088 4.039952216185039 4.426297745081057 -0.8326947867638858 1 1 0
9775 425 3 0.152509 0.3709530058076029 2.7390234919669862 2.21047535774108 1 1 1
9695 422 2 -0.140261 5.462977816789858 0.8035982891169049 5.933574064932449 1 1 1
9704 422 3 0.130168 4.8507793152278795 0.3215676620391497 5.129650503338367 1 1 1
9561 416 3 0.152509 0.35079826614854337 5.748127705471845 -1.3118327397850662 1 1 0
10689 465 3 0.128637 7.361169639922298 6.775827928016518 2.7348675347378606 1 1 0
9956 433 3 0.133735 10.36609872082164 2.6992648436981526 -0.3404648413860558 1 1 0
10679 465 2 -0.274751 7.270592626671468 4.876402992754154 1.8166029806180346 1 1 0
9939 433 2 -0.002672 13.353284466223112 5.264391791155688 0.1938794751741275 1 1 0
10673 465 1 -0.693636 7.277072609683333 2.592025362020977 1.3830504348060157 1 1 0
10688 465 3 0.152509 8.308904168815594 4.890497261260297 1.4936025991245934 1 1 0
11672 0 4 0 10.975390434265137 2.1304957866668697 0.21913941204547882 0 0 0
12323 0 5 0 8.234274486611211 7.3595414256520995 -1.1988462131389537 0 0 0
12731 0 5 0 7.175119248779077 0.34085206573140764 2.262773275375366 0 0 0
12732 0 5 0 8.34480651496703 0.4098294216884281 2.9854001998901367 0 0 0
13078 0 5 0 7.240684509277344 3.2263786792755123 5.16768407821656 0 0 0
13079 0 5 0 8.43734836578369 3.1425511837005615 5.84264516830445 0 0 0
13124 0 5 0 10.596603393567904 1.4631235594943128 -0.8655248880386353 0 0 0
13126 0 5 0 8.487762451171875 2.5574746131896955 -0.8393137454986567 0 0 0
13127 0 5 0 8.89608097076416 3.24149489402771 0.2872400581836707 0 0 0
13128 0 5 0 10.159103393554688 3.0088937282562256 0.7900732159614561 0 0 0
13133 0 5 0 8.04957485198971 4.1444735527038565 0.9017112851142881 0 0 0
13134 0 5 0 8.458912849426268 4.8439927101135245 2.0170738697052 0 0 0
13135 0 5 0 9.719372749328585 4.623154163360596 2.522536516189575 0 0 0
13136 0 5 0 10.557621955871582 3.7067558765411377 1.9187885522842405 0 0 0
13143 0 5 0 9.122668266296387 7.727869987487793 4.87380838394165 0 0 0
13255 0 5 0 12.34434423835064 6.199118620994024 -1.3173078220256653 0 0 0
13261 0 5 0 12.738125900338014 7.762178430504387 0.455969460689178 0 0 0
13262 0 5 0 11.912197212288696 6.860832223839356 -0.1819089572795718 0 0 0
13667 0 5 0 13.348128167541283 0.3433239895595237 2.259748935699463 0 0 0
14013 0 5 0 12.443513870239254 4.1221556663513175 5.579963684082039 0 0 0
14014 0 5 0 13.412609099843106 3.229073046294619 5.163461685180666 0 0 0
14069 0 5 0 14.223332405090332 4.149635314941406 0.902276277542114 0 0 0
6258 273 2 0.534823 10.711382956104547 2.349150597302231 3.4122811456451565 0 1 0
6263 273 2 -0.274751 9.379963268787767 2.7660581874558243 3.4346665749061627 0 1 0
6272 273 3 0.152509 8.64642193441247 2.016093046359172 3.3372269375169283 0 1 0
6264 273 2 -0.100851 9.081700084749086 4.02932572740221 3.9076379040741074 0 1 0
6257 273 1 -0.693636 11.035904505158646 1.140340674051088 2.860637403496363 0 1 0
6265 273 2 -0.140261 10.061813385170563 4.892699784339072 4.394658099314596 0 1 0
6273 273 3 0.128637 8.07810441797249 4.313499765140019 4.064061737697303 0 1 0
6274 273 3 0.130168 9.740739792523188 5.8565816156014465 4.8550872376497 0 1 0
9938 433 2 0.534823 13.147713288863127 6.5094925196479085 -0.41805264018709853 1 1 0
9943 433 2 -0.274751 14.106425303338005 7.517588028509277 -0.3094072670989021 1 1 0
9940 433 2 -0.20686 12.315316397309749 4.29328894564042 0.16059395124091047 1 1 0
6259 273 2 -0.002672 11.744682142546377 3.3004644043722404 3.7319512170289926 0 1 0
6266 273 2 -0.187088 11.412465292456922 4.541640220668933 4.235046462877119 0 1 0
10695 465 3 0.152509 8.17406243080434 0.513459990497408 0.24558466031722714 1 1 0
6262 273 2 0.534823 12.367559300978227 0.7902402924467834 2.7856019597063 0 1 0
3749 163 3 0.152509 12.967625295116559 6.290941001384495 3.177928134504217 0 0 1
3748 163 3 0.128637 10.821598931269861 5.869637960615755 2.2955562949653467 0 0 1
6275 273 3 0.133735 12.200480009082904 5.2534960345428985 4.5943518499062295 0 1 0
6260 273 2 -0.20686 13.089652973097557 2.8758341901393516 3.6488617083489485 0 1 0
944 42 1 -0.693636 14.282903570957481 0.9046204499753993 -0.531155323630914 0 1 1
3739 163 2 -0.100851 11.244077342567987 6.804391888308893 2.012524694844962 0 0 1
9951 433 3 0.151995 12.220637061296392 3.40841386251984 0.7758727044603064 1 1 0
6271 273 3 0.151995 13.897147514550383 3.48793847982024 3.880699572752488 0 1 0
6261 273 2 -0.002672 13.446453536053868 1.602222457164633 3.2666630980315707 0 1 0
3740 163 2 -0.274751 12.486084021975026 7.079362181950415 2.5727350005464213 0 0 1
3747 163 3 0.130168 9.600645788389558 7.308561936190664 0.8237910132191046 0 0 1
3738 163 2 -0.140261 10.465289257241633 7.747713980330102 1.3107488899797068 0 0 1
10686 465 2 -0.274751 7.305792830571624 0.3355625852444406 0.8123473857081926 1 1 0
9941 433 2 -0.002672 11.28717694619382 4.541069340708109 -0.7861316925816735 1 1 0
2275 99 3 0.130168 11.676979321294805 3.746547858458362 6.205881709235451 0 1 0
2276 99 3 0.128637 14.165961208827667 4.339157746593836 6.168520411931376 0 1 0
9947 433 2 -0.187088 10.306985617315906 3.5979877005690906 -0.9541681705402167 1 1 0
966 42 3 0.152509 11.799070529431317 0.3032662149446016 -0.9569940984575318 0 1 1
9937 433 1 -0.693636 12.097642047632924 6.759620491152153 -1.276602039329055 1 1 0
9955 433 3 0.133735 14.45981732853115 4.097681217878403 1.5113188029408853 1 1 0
9946 433 2 -0.187088 14.45269315270768 5.081308665205564 1.080926955679663 1 1 0
9944 433 2 -0.100851 15.28853465833477 7.243848967500517 0.4533267095052118 1 1 0
9945 433 2 -0.140261 15.368964324302667 6.1112420613288885 1.1719006575345732 1 1 0
9954 433 3 0.130168 16.231256725598726 5.92599448581609 1.8494427285043578 1 1 0
4945 215 3 0.152509 21.41379188846983 4.743048473312264 -0.025248658524476886 0 1 1
6472 282 2 -0.140261 20.51118390987522 3.9993471770128095 3.4061264676637784 0 1 1
11744 0 4 0 17.147291183471676 2.1331217288970947 0.22199425101280212 0 0 0
13259 0 5 0 14.410866836409728 7.361976630269835 -1.2009290378459752 0 0 0
13668 0 5 0 14.51843818798806 0.41283921783100586 2.9822652339935303 0 0 0
14015 0 5 0 14.609624862670897 3.142992734909057 5.839412212371828 0 0 0
14060 0 5 0 16.768747329711914 1.4662079811096191 -0.8628037571907043 0 0 0
14062 0 5 0 14.65998553817144 2.559855937042825 -0.8366338014602661 0 0 0
14063 0 5 0 15.069043159484863 3.2457563877105713 0.2894414365291611 0 0 0
14064 0 5 0 16.33112144470215 3.01129150390625 0.7936306595802305 0 0 0
14070 0 5 0 14.632375717163086 4.8491101264953596 2.01814341545105 0 0 0
14071 0 5 0 15.891819953918457 4.62630319595337 2.5249030590057373 0 0 0
14072 0 5 0 16.72928237915039 3.709571599960327 1.9221739768981931 0 0 0
14079 0 5 0 15.294791221618652 7.729918479919433 4.872481822967529 0 0 0
14191 0 5 0 18.517659279248974 6.199299344963624 -1.3178838413127716 0 0 0
14195 0 5 0 20.586922737500927 7.358569154686512 -1.200459830082303 0 0 0
14197 0 5 0 18.912789444039188 7.762448797173095 0.45487464257394516 0 0 0
14198 0 5 0 18.085543724439404 6.861241350121094 -0.18287789038504187 0 0 0
14603 0 5 0 19.525983659179467 0.3460514981044534 2.2614569664001465 0 0 0
14604 0 5 0 20.696994630248803 0.41255311553609586 2.9828507900238037 0 0 0
14949 0 5 0 18.620195388793945 4.121001243591308 5.582080364227298 0 0 0
14950 0 5 0 19.589357368779122 3.2280075550079346 5.168527126312256 0 0 0
14951 0 5 0 20.7849178314209 3.1430768966674805 5.844483375549321 0 0 0
14998 0 5 0 20.83326721191406 2.5608532428741455 -0.8357675075531006 0 0 0
14999 0 5 0 21.243545524907052 3.2449989318847656 0.290753036737442 0 0 0
15005 0 5 0 20.398303985595703 4.14830160140991 0.905843913555145 0 0 0
15006 0 5 0 20.808534622192383 4.846050262451172 2.022481679916382 0 0 0
15015 0 5 0 21.47241019470686 7.730814456939697 4.872756481170662 0 0 0
6465 282 2 0.534823 19.401282628755062 6.45059312355599 2.6662894314258265 0 1 1
6464 282 1 -0.693636 18.85419291423361 7.621974499733484 2.4562662410157596 0 1 1
6267 273 2 -0.187088 14.715627637897805 1.121459465133032 3.354990369172765 0 1 0
6276 273 3 0.133735 15.54094425591032 1.7354763437929024 3.6055111053826616 0 1 0
6470 282 2 -0.274751 18.621036113900086 5.295118917223322 2.8718290417233936 0 1 1
6479 282 3 0.152509 17.5848555779032 5.491962255050534 2.6254262770482057 0 1 1
895 39 3 0.130168 16.718402815887647 1.5107525203226728 5.452410664409283 0 1 1
6480 282 3 0.128637 18.571520889904274 3.33077451528028 3.3548841584186695 0 1 1
6466 282 2 -0.002672 20.783823626751303 6.335528527787008 2.906308126391962 0 1 1
946 42 2 -0.002672 16.63305644160519 0.21288604556687613 -0.46002501637214865 0 1 1
953 42 2 -0.187088 17.929595333806933 0.540216719941054 -0.1105502699738461 0 1 1
6471 282 2 -0.100851 19.135412433595842 4.125744229757949 3.2495306174372995 0 1 1
4936 215 2 -0.274751 20.75496821207561 4.164210294179178 -0.658936401140832 0 1 1
4928 215 2 0.534823 21.288711829366104 2.9137920937603385 -1.1013468762656549 0 1 1
950 42 2 -0.274751 15.969828951638123 2.515990373953181 -0.2932629534720683 0 1 1
959 42 3 0.152509 15.253641268173805 3.310631070491511 -0.35738968964465756 0 1 1
960 42 3 0.128637 17.498072451835068 3.9245657445564897 0.2168714918898269 0 1 1
951 42 2 -0.100851 17.273565844723553 2.851828541783809 -0.024480419003847453 0 1 1
2639 115 3 0.128637 15.300139682054054 7.368460482142964 5.018512809151481 0 1 1
945 42 2 0.534823 15.593746747928025 1.14846370892337 -0.3833166433686924 0 1 1
2630 115 2 -0.100851 15.59132185738807 7.195698574803295 6.051151656108195 0 1 1
896 39 3 0.128637 18.354961067174834 3.2229746349244373 5.276705197613364 0 1 1
886 39 2 -0.140261 17.613227025463416 1.3815282019573634 5.9603027815733345 0 1 1
887 39 2 -0.100851 18.576766603864797 2.3730066000586385 5.868348195795272 0 1 1
6481 282 3 0.130168 20.97028548674018 2.980897492613563 3.630992798687717 0 1 1
961 42 3 0.130168 19.29710746065806 1.9536031767562616 0.30602658846289166 0 1 1
4944 215 3 0.128637 19.104644368288024 5.601505069512456 -0.616036589977777 0 1 1
2640 115 3 0.130168 16.454400146435038 5.212113595993371 5.840859960519803 0 1 1
952 42 2 -0.140261 18.26255182429618 1.832265657102937 0.15079050787591997 0 1 1
7900 344 2 -0.187088 21.463280277258548 6.7429274888831205 6.023825884153275 0 1 0
6473 282 2 -0.187088 21.301160017549755 5.151768935388521 3.2683007287298613 0 1 1
5790 252 3 0.128637 21.096980804913212 1.187854161149474 3.1249777539165393 0 1 0
4935 215 2 -0.100851 19.54532939216562 4.629336690611689 -0.9802042537208082 0 1 1
9589 417 3 0.130168 0.10860162621891836 10.508393461328271 0.835449932961853 1 1 0
3410 149 2 0.534823 4.2189933445453525 11.61480863528734 -0.9127405275119503 0 0 0
1511 66 3 0.152509 3.567134235741034 8.202929768230518 2.1528709096776986 0 1 1
8302 361 3 0.128637 4.738635060180317 14.235823391714712 0.6687978945570452 1 0 0
763 34 2 -0.20686 6.855298221006032 15.50101993898009 -1.138982838928986 0 0 0
3418 149 2 -0.274751 3.0457461197824287 12.355118805162867 -0.9873374840389727 0 0 0
1504 66 2 -0.140261 4.30288525275457 8.56701988479883 5.414587577050588 0 1 1
11601 0 4 0 4.288081169128418 9.906388282775879 2.3002073764801025 0 0 0
12025 0 4 0 1.4901484773351454 13.62471866607666 5.564235210418701 0 0 0
12097 0 5 0 6.721480369567859 12.768717765808088 5.954295635223395 0 0 0
12098 0 5 0 5.524450298315687 12.665334701538086 5.278097152709961 0 0 0
12099 0 5 0 5.317294597625732 13.457916259765623 4.168032646179199 0 0 0
12100 0 5 0 6.304844379425049 14.339759826660153 3.7734644412994385 0 0 0
12105 0 5 0 4.548382759094237 11.781723022460934 5.7011480331420925 0 0 0
12106 0 5 0 6.125970840454103 15.144044876098633 2.6624162197113037 0 0 0
12201 0 5 0 3.450655221939087 9.388449668884277 3.195655107498169 0 0 0
12202 0 5 0 2.201225996017456 9.937400817871094 3.4026296138763428 0 0 0
12203 0 5 0 1.8278244733810423 11.045455932617188 2.6677887439727783 0 0 0
12204 0 5 0 2.7100417613983154 11.574553489685057 1.7466704845428465 0 0 0
12205 0 5 0 3.939882516860962 10.97068691253662 1.582185387611389 0 0 0
12206 0 5 0 3.812434673309326 8.275744438171376 3.942811965942383 0 0 0
12208 0 5 0 1.7057482004165645 8.287323951721191 5.073343753814702 0 0 0
12209 0 5 0 1.3346444368362425 9.391158103942862 4.331332206726074 0 0 0
12210 0 5 0 2.361328840255739 12.683663368225082 0.9958744645118711 0 0 0
12211 0 5 0 3.2398502826690674 13.209099769592283 0.06912913173437119 0 0 0
12212 0 5 0 4.465946197509766 12.607319831848143 -0.11069128662347794 0 0 0
12213 0 5 0 4.808423042297356 11.496296882629395 0.6372629404067993 0 0 0
17713 0 5 0 0.5499514863683457 12.768242835998535 5.95203161239624 0 0 0
17716 0 5 0 0.12997239090935878 14.339334487915039 3.771645545959477 0 0 0
17717 0 5 0 1.2995204255773338 14.400326728820787 4.503299236297607 0 0 0
17722 0 5 0 -0.05075270674688051 15.145357131958008 2.6610677242279053 0 0 0
17725 0 5 0 2.283937386332313 15.29037857055664 4.101558685302734 0 0 0
17940 0 5 0 1.6342916811399597 8.014924058861327 -0.05505882910574145 0 0 0
1502 66 2 -0.274751 3.544392113019953 8.081110941423521 3.2083713954125805 0 1 1
1512 66 3 0.128637 5.217356385226184 9.172910972993032 3.5935636882435045 0 1 1
1503 66 2 -0.100851 4.370210753836026 8.77102294970501 4.0323516102351915 0 1 1
8292 361 2 -0.140261 3.49401714572563 15.627267942929949 1.8234047372459272 1 0 0
8301 361 3 0.130168 3.7205657671228263 15.174793642234325 2.792168593786304 1 0 0
3419 149 3 0.151995 6.1818866486067225 10.357245872330628 1.5103274715581188 0 0 0
3408 149 2 -0.20686 5.754630655393949 10.502648237413737 0.45169750377233364 0 0 0
3415 149 2 -0.187088 3.832835538547954 11.543070271142282 1.460321087680278 0 0 0
3424 149 3 0.133735 4.237052755815613 11.146006212881028 2.3759090830500886 0 0 0
3409 149 2 -0.002672 4.5403538901529705 11.154366139752556 0.33201215199429535 0 0 0
9591 417 3 0.152509 1.2251117779630805 9.361687747112152 4.830743720874064 1 1 0
3425 149 3 0.130168 2.3854711263292363 12.947445391781052 2.29181542961447 0 0 0
9582 417 2 -0.274751 0.5374159155735764 9.880878588662528 4.187906040040357 1 1 0
3416 149 2 -0.140261 2.813736729318676 12.50459131412531 1.344484984739312 0 0 0
978 43 2 -0.140261 3.2730579742877848 14.013648167534123 5.3608298268250145 0 1 1
988 43 3 0.128637 1.1967188008951797 13.446449850916311 5.75499912015372 0 1 1
979 43 2 -0.100851 2.2713373071701275 13.234539429572678 5.86945510793465 0 1 1
3407 149 2 -0.002672 6.634644827836249 10.198980099747159 -0.6298159590541204 0 0 0
9590 417 3 0.128637 1.3695554687427152 9.123365727800108 2.452295511170668 1 1 0
8293 361 2 -0.100851 3.982873585985535 14.989014916499261 0.643023345695571 1 0 0
1513 66 3 0.130168 4.982203564348213 9.08710457728717 6.100069678027553 0 1 1
9581 417 2 -0.100851 0.5814033008924901 9.700343484827718 2.8182291122564145 1 1 0
3417 149 2 -0.100851 2.30213079971199 12.805148988589972 0.1563812366842583 0 0 0
3426 149 3 0.128637 1.312776283171524 13.291455163074028 0.1263148690700524 0 0 0
987 43 3 0.130168 2.9492605430546113 14.756407652324446 4.725179590390654 0 1 1
977 43 2 -0.187088 4.581651306239399 13.491719359196251 5.497360102146971 0 1 1
986 43 3 0.133735 5.3272261921492605 13.988965297466462 4.958679921299393 0 1 1
8294 361 2 -0.274751 3.6318737143651147 15.572971387857226 -0.541469360861624 1 0 0
1626 71 3 0.152509 1.344910533259308 9.083539627749838 -0.6115975073676179 0 1 1
981 43 3 0.151995 6.928167560553136 12.678278084074982 6.222644378058025 0 1 1
2092 91 3 0.128637 13.564009115249375 15.185568703939365 1.5004538074672642 0 0 1
777 34 3 0.130168 9.210731078919608 11.703536917609872 -0.5139397050439922 0 0 0
4849 211 3 0.133735 12.14766973563605 14.695992044064143 -0.9669007711328138 0 1 1
3414 149 2 -0.187088 7.8513557279835 9.522947927307209 -0.4770602068979938 0 0 0
3423 149 3 0.133735 8.13938501300835 9.234969142547861 0.6076953612372418 0 0 0
3731 163 2 -0.002672 12.39382697665424 9.277351457280318 1.7649995049465883 0 0 1
7945 346 2 -0.187088 9.809537948068018 11.264269207406487 4.371097507969113 0 1 0
7954 346 3 0.133735 9.358858883426855 11.985099473857428 3.792375955609951 0 1 0
11593 0 4 0 7.662240025909362 13.625452995300293 5.567559719085693 0 0 0
11665 0 4 0 13.832651138305653 13.622488975524902 5.568509578704834 0 0 0
11673 0 4 0 10.459953308105469 9.90249252319336 2.2968380451202393 0 0 0
12101 0 5 0 7.472785472869873 14.401331901550293 4.506819248199463 0 0 0
12109 0 5 0 8.458553314208986 15.289655685424803 4.105730056762699 0 0 0
12324 0 5 0 7.811611274788697 8.01273442263086 -0.06029640845145545 0 0 0
13033 0 5 0 12.89342307795809 12.765562052121835 5.956381797790527 0 0 0
13034 0 5 0 11.694906234741207 12.662565231323223 5.283416748046875 0 0 0
13035 0 5 0 11.48687744140625 13.451852798461916 4.170779228210449 0 0 0
13036 0 5 0 12.474208826843139 14.332695960998535 3.7738125324249268 0 0 0
13037 0 5 0 13.643002510082404 14.394777292600349 4.505278110504154 0 0 0
13041 0 5 0 10.720681190490724 11.777814865112305 5.707469463348393 0 0 0
13042 0 5 0 12.29477977752646 15.136088371276852 2.6626205444335938 0 0 0
13137 0 5 0 9.623537063598633 9.386699676513672 3.194521903991699 0 0 0
13138 0 5 0 8.374495506286621 9.936558723449707 3.4017183780670166 0 0 0
13139 0 5 0 8.001996994018683 11.045128817382514 2.667849063873293 0 0 0
13140 0 5 0 8.883111950075596 11.571967124938965 1.7441513538360593 0 0 0
13141 0 5 0 10.113064765930174 10.967616081237793 1.5800964832305942 0 0 0
13142 0 5 0 9.984991073608398 8.27274417877197 3.940195798873906 0 0 0
13144 0 5 0 7.878547191619873 8.286969184875487 5.0724968910217285 0 0 0
13145 0 5 0 7.507356164111375 9.390886306762695 4.330455780029297 0 0 0
13146 0 5 0 8.535696029663086 12.683669090270993 0.9964776039123533 0 0 0
13147 0 5 0 9.414154050184157 13.208282465329843 0.06895068287849426 0 0 0
13148 0 5 0 10.640192031860352 12.60411357879638 -0.11286090314388164 0 0 0
13149 0 5 0 10.982014656066895 11.492687225341797 0.6351000070571902 0 0 0
13260 0 5 0 13.988167862007934 8.013298044151856 -0.06067787817800996 0 0 0
14075 0 5 0 14.175776481628418 11.044666290283201 2.664151430130005 0 0 0
14080 0 5 0 14.051305770874023 8.28827857971191 5.0698561668396 0 0 0
14081 0 5 0 13.680841445922848 9.391509056091309 4.3277082443237305 0 0 0
3732 163 2 0.534823 13.069736428113648 8.291627183546858 2.4297310786164443 0 0 1
3727 163 1 -0.693636 14.170968627063344 8.470795324551831 3.1443038696322 0 0 1
7950 346 3 0.151995 10.992489682650566 13.53630017657746 4.004054455743889 0 1 0
7939 346 2 -0.20686 11.590283003075479 12.830080976233182 4.515916584115174 0 1 0
3737 163 2 -0.187088 11.101618652831254 8.98330079439051 1.1844479545906619 0 0 1
3741 163 3 0.151995 12.536718211557746 11.267509308999907 0.8346796724950412 0 0 1
3730 163 2 -0.20686 13.026014211063307 10.505912573982373 1.4839900617959645 0 0 1
3729 163 2 -0.002672 14.201061212488062 10.734817692222919 2.1832354390321393 0 0 1
3746 163 3 0.133735 10.505915624698096 9.715973813721378 0.6288225351741921 0 0 1
7955 346 3 0.133735 12.658674053538272 15.397987043425518 4.371685351084772 0 1 0
7946 346 2 -0.187088 13.307186670412236 14.55574377995667 4.7894787990919685 0 1 0
775 34 3 0.152509 8.088458782054797 14.008754981078184 2.940374591729654 0 0 0
7938 346 2 -0.002672 11.061406918406986 11.563383949523853 4.806357869120882 0 1 0
7940 346 2 -0.002672 12.820951225864928 13.227985226061742 4.966340680981505 0 1 0
761 34 2 0.534823 7.3797161832490765 14.823681089104669 1.0617810355971613 0 0 0
766 34 2 -0.274751 8.073760793577975 13.939614541738145 1.875448307621326 0 0 0
767 34 2 -0.100851 8.695956963729852 12.801353615157863 1.338238261006883 0 0 0
762 34 2 -0.002672 7.473861832208754 14.56084237611473 -0.29001079228689464 0 0 0
776 34 3 0.128637 9.20222985413358 12.110146813555945 1.9298953691673952 0 0 0
7936 346 1 -0.693636 13.102428241254243 10.954515177920909 5.896718054856841 0 1 0
7941 346 2 0.534823 13.605047142520428 12.189466029297526 5.564207392501273 0 1 0
7937 346 2 0.534823 11.894759724392191 10.641158941544585 5.522353404168102 0 1 0
769 34 2 -0.187088 8.206032862512625 13.530669324575618 -0.8680204670670936 0 0 0
7953 346 3 0.130168 8.477869633849993 9.655698787234746 4.137563350163423 0 1 0
7952 346 3 0.128637 9.861255520900013 7.943174364981605 5.022610891513129 0 1 0
4845 211 3 0.151995 10.959771782337619 15.170409960067627 1.3541330256306974 0 1 1
768 34 2 -0.140261 8.762448941805424 12.582146186391013 -0.062228518923036935 0 0 0
9952 433 3 0.152509 14.033981509514973 8.447172308765353 -0.899460461912862 1 1 0
7944 346 2 -0.140261 9.407205863262732 9.937404973598795 4.52756783887195 0 1 0
7943 346 2 -0.100851 10.242807919568241 8.95562287545394 4.993939291236364 0 1 0
7951 346 3 0.152509 11.999856375302874 8.441229642420096 6.024209123086931 0 1 0
7942 346 2 -0.274751 11.403569684564014 9.314027615453954 5.610926394811901 0 1 0
7957 346 3 0.128637 16.44308434852772 13.917959305087853 6.163836959171921 0 1 0
9953 433 3 0.128637 16.06014759034473 8.025549003518847 0.6024569448210406 1 1 0
10141 441 3 0.130168 21.341496610623036 8.357521896976527 -0.41216411651486995 1 1 0
3728 163 2 0.534823 14.764348164073974 9.704711060363598 2.9905201156068824 0 0 1
3736 163 2 -0.187088 15.003686063040918 11.87430821726533 1.9403182684093376 0 0 1
3745 163 3 0.133735 14.592638098347754 12.609109518141903 1.288555966777318 0 0 1
7948 346 2 -0.100851 15.45270001233985 13.761058620811648 5.695171571606767 0 1 0
7947 346 2 -0.140261 14.674653048384586 14.751028570046874 5.1306123754842545 0 1 0
7949 346 2 -0.274751 14.901857301464673 12.477448812800528 5.8787091415575805 0 1 0
6468 282 2 -0.002672 20.998252140760695 8.630863037273649 2.37165724350655 0 1 1
6469 282 2 0.534823 19.597093811468557 8.681251139664754 2.2592022174564335 0 1 1
6477 282 2 -0.274751 18.980284003676793 9.897713183723628 1.932131760201152 0 1 1
6486 282 3 0.152509 17.95573709975308 10.072454521459196 1.8888473761097513 0 1 1
2547 111 3 0.128637 18.64492148200173 12.925045196662763 4.234819478105277 0 1 1
2091 91 3 0.130168 15.820510705052447 14.745795435351535 1.6773335634895143 0 0 1
2538 111 2 -0.100851 18.948414281531406 13.071631102789167 5.236170100469504 0 1 1
10807 470 3 0.133735 17.647152188840412 13.211989981647207 -0.9078363802858227 1 1 1
10808 470 3 0.130168 19.596966773227933 11.623503107512938 -0.6195577987326303 1 1 1
10802 470 3 0.151995 15.226194923918154 13.438135539751983 -1.3120731957493847 1 1 1
10798 470 2 -0.187088 17.582241143596896 12.137558113086298 -1.1045060582797028 1 1 1
2537 111 2 -0.274751 18.65667112616766 12.153618251229723 6.138476349495802 0 1 1
2546 111 3 0.152509 18.220543812574252 11.226534692906096 5.80436294679637 0 1 1
6485 282 3 0.128637 19.166044223404437 12.01538480440307 1.5939954650013213 0 1 1
6476 282 2 -0.100851 19.709427808106444 11.034135950125373 1.7662554515000328 0 1 1
6475 282 2 -0.140261 21.05630278148602 11.023825195786275 1.9754615799594648 0 1 1
3733 163 2 -0.274751 16.004199066609885 9.887752872601418 3.6478272352557743 0 0 1
11737 0 4 0 20.00994681478026 13.621719360351562 5.568270206451416 0 0 0
11745 0 4 0 16.63508605957031 9.90390396118164 2.296879529953003 0 0 0
13045 0 5 0 14.626708984375 15.285127639770485 4.103330135345459 0 0 0
13969 0 5 0 19.070161819457958 12.764096260070797 5.9556565284729 0 0 0
13970 0 5 0 17.872289657592773 12.661623001098635 5.281667232513428 0 0 0
13971 0 5 0 17.664798736572266 13.45107650756836 4.169294834136966 0 0 0
13972 0 5 0 18.651954650878906 14.33294200897217 3.7737467288970947 0 0 0
13973 0 5 0 19.820867538452152 14.39424514770508 4.504661560058595 0 0 0
13977 0 5 0 16.897182464599606 11.777274131774902 5.705327033996582 0 0 0
13978 0 5 0 18.472036361694332 15.136399269104 2.6625072956085223 0 0 0
13981 0 5 0 20.804187774658203 15.28372287750244 4.103546619415283 0 0 0
14073 0 5 0 15.797714233398438 9.387319564819336 3.1933934688568115 0 0 0
14074 0 5 0 14.54822444548414 9.936634060060948 3.398989677429199 0 0 0
14076 0 5 0 15.0580472946167 11.57203102111816 1.7414708137512205 0 0 0
14077 0 5 0 16.28864097595215 10.968389511108398 1.5789047479629514 0 0 0
14078 0 5 0 16.15793800336759 8.274657245790928 3.940340042114258 0 0 0
14082 0 5 0 14.710965156555172 12.682697296142576 0.9921485185623167 0 0 0
14083 0 5 0 15.590720176696777 13.207179069519043 0.0664372369647026 0 0 0
14084 0 5 0 16.816438674926758 12.603922843933102 -0.11369950324296951 0 0 0
14085 0 5 0 17.158248901367188 11.493336677551268 0.634710490703583 0 0 0
14196 0 5 0 20.16411313667085 8.011387834496094 -0.06122719458426462 0 0 0
15010 0 5 0 20.723814010377353 9.935495372927159 3.39707088470459 0 0 0
15011 0 5 0 20.351823806762695 11.04330062866211 2.66263508796692 0 0 0
15012 0 5 0 21.23369598388672 11.571013450622555 1.7406275272369383 0 0 0
15016 0 5 0 20.227159498008852 8.286661144411534 5.067378044128418 0 0 0
15017 0 5 0 19.856088638305664 9.389044761657713 4.324363231658939 0 0 0
15018 0 5 0 20.88569831082462 12.680721282958984 0.9899727702140806 0 0 0
3742 163 3 0.152509 16.416911043843903 9.058560871576391 4.185752973025033 0 0 1
3734 163 2 -0.100851 16.619134986434226 11.18352666605963 3.6429913335094684 0 0 1
9239 402 3 0.152509 21.016272737701918 14.003121152878055 3.179767139571151 1 1 1
3735 163 2 -0.140261 16.250122309637337 12.142852133155651 2.678286354361597 0 0 1